VARIABLES = "x","y"
ZONE T="line1" ZONETYPE=ORDERED I=3 DATAPACKING=POINT
1 -1.000000e+00
2 -2.000000e+00
3 -3.000000e+00

